Li X
           1
    17.057390    0.000000    0.000000
     0.000000   19.696160    0.000000
     0.000000   -4.924050   14.145630
 Li               X               
               36              108
Direct configuration=     1
  0.00000000  0.00000000  0.00000000
  0.16666667  0.25000000  0.00000000
  0.00000000  0.00000000  0.33333333
  0.16666667  0.25000000  0.33333333
  0.00000000  0.00000000  0.66666667
  0.16666667  0.25000000  0.66666667
  0.00000000  0.50000000  0.00000000
  0.16666667  0.75000000  0.00000000
  0.00000000  0.50000000  0.33333333
  0.16666667  0.75000000  0.33333333
  0.00000000  0.50000000  0.66666667
  0.16666667  0.75000000  0.66666667
  0.33333333  0.00000000  0.00000000
  0.50000000  0.25000000  0.00000000
  0.33333333  0.00000000  0.33333333
  0.50000000  0.25000000  0.33333333
  0.33333333  0.00000000  0.66666667
  0.50000000  0.25000000  0.66666667
  0.33333333  0.50000000  0.00000000
  0.50000000  0.75000000  0.00000000
  0.33333333  0.50000000  0.33333333
  0.50000000  0.75000000  0.33333333
  0.33333333  0.50000000  0.66666667
  0.50000000  0.75000000  0.66666667
  0.66666667  0.00000000  0.00000000
  0.83333333  0.25000000  0.00000000
  0.66666667  0.00000000  0.33333333
  0.83333333  0.25000000  0.33333333
  0.66666667  0.00000000  0.66666667
  0.83333333  0.25000000  0.66666667
  0.66666667  0.50000000  0.00000000
  0.83333333  0.75000000  0.00000000
  0.66666667  0.50000000  0.33333333
  0.83333333  0.75000000  0.33333333
  0.66666667  0.50000000  0.66666667
  0.83333333  0.75000000  0.66666667
  0.08333333  0.12500011  0.00000000
  0.00000000  0.25000000  0.00000000
  0.08333333  0.37500011  0.00000000
  0.16666667  0.00000000  0.00000000
  0.25000000  0.12500011  0.00000000
  0.25000000  0.37500011  0.00000000
  0.08333333  0.12500011  0.33333333
  0.00000000  0.25000000  0.33333333
  0.08333333  0.37500011  0.33333333
  0.16666667  0.00000000  0.33333333
  0.25000000  0.12500011  0.33333333
  0.25000000  0.37500011  0.33333333
  0.08333333  0.12500011  0.66666667
  0.00000000  0.25000000  0.66666667
  0.08333333  0.37500011  0.66666667
  0.16666667  0.00000000  0.66666667
  0.25000000  0.12500011  0.66666667
  0.25000000  0.37500011  0.66666667
  0.08333333  0.62500011  0.00000000
  0.00000000  0.75000000  0.00000000
  0.08333333  0.87500011  0.00000000
  0.16666667  0.50000000  0.00000000
  0.25000000  0.62500011  0.00000000
  0.25000000  0.87500011  0.00000000
  0.08333333  0.62500011  0.33333333
  0.00000000  0.75000000  0.33333333
  0.08333333  0.87500011  0.33333333
  0.16666667  0.50000000  0.33333333
  0.25000000  0.62500011  0.33333333
  0.25000000  0.87500011  0.33333333
  0.08333333  0.62500011  0.66666667
  0.00000000  0.75000000  0.66666667
  0.08333333  0.87500011  0.66666667
  0.16666667  0.50000000  0.66666667
  0.25000000  0.62500011  0.66666667
  0.25000000  0.87500011  0.66666667
  0.41666667  0.12500011  0.00000000
  0.33333333  0.25000000  0.00000000
  0.41666667  0.37500011  0.00000000
  0.50000000  0.00000000  0.00000000
  0.58333333  0.12500011  0.00000000
  0.58333333  0.37500011  0.00000000
  0.41666667  0.12500011  0.33333333
  0.33333333  0.25000000  0.33333333
  0.41666667  0.37500011  0.33333333
  0.50000000  0.00000000  0.33333333
  0.58333333  0.12500011  0.33333333
  0.58333333  0.37500011  0.33333333
  0.41666667  0.12500011  0.66666667
  0.33333333  0.25000000  0.66666667
  0.41666667  0.37500011  0.66666667
  0.50000000  0.00000000  0.66666667
  0.58333333  0.12500011  0.66666667
  0.58333333  0.37500011  0.66666667
  0.41666667  0.62500011  0.00000000
  0.33333333  0.75000000  0.00000000
  0.41666667  0.87500011  0.00000000
  0.50000000  0.50000000  0.00000000
  0.58333333  0.62500011  0.00000000
  0.58333333  0.87500011  0.00000000
  0.41666667  0.62500011  0.33333333
  0.33333333  0.75000000  0.33333333
  0.41666667  0.87500011  0.33333333
  0.50000000  0.50000000  0.33333333
  0.58333333  0.62500011  0.33333333
  0.58333333  0.87500011  0.33333333
  0.41666667  0.62500011  0.66666667
  0.33333333  0.75000000  0.66666667
  0.41666667  0.87500011  0.66666667
  0.50000000  0.50000000  0.66666667
  0.58333333  0.62500011  0.66666667
  0.58333333  0.87500011  0.66666667
  0.75000000  0.12500011  0.00000000
  0.66666667  0.25000000  0.00000000
  0.75000000  0.37500011  0.00000000
  0.83333333  0.00000000  0.00000000
  0.91666667  0.12500011  0.00000000
  0.91666667  0.37500011  0.00000000
  0.75000000  0.12500011  0.33333333
  0.66666667  0.25000000  0.33333333
  0.75000000  0.37500011  0.33333333
  0.83333333  0.00000000  0.33333333
  0.91666667  0.12500011  0.33333333
  0.91666667  0.37500011  0.33333333
  0.75000000  0.12500011  0.66666667
  0.66666667  0.25000000  0.66666667
  0.75000000  0.37500011  0.66666667
  0.83333333  0.00000000  0.66666667
  0.91666667  0.12500011  0.66666667
  0.91666667  0.37500011  0.66666667
  0.75000000  0.62500011  0.00000000
  0.66666667  0.75000000  0.00000000
  0.75000000  0.87500011  0.00000000
  0.83333333  0.50000000  0.00000000
  0.91666667  0.62500011  0.00000000
  0.91666667  0.87500011  0.00000000
  0.75000000  0.62500011  0.33333333
  0.66666667  0.75000000  0.33333333
  0.75000000  0.87500011  0.33333333
  0.83333333  0.50000000  0.33333333
  0.91666667  0.62500011  0.33333333
  0.91666667  0.87500011  0.33333333
  0.75000000  0.62500011  0.66666667
  0.66666667  0.75000000  0.66666667
  0.75000000  0.87500011  0.66666667
  0.83333333  0.50000000  0.66666667
  0.91666667  0.62500011  0.66666667
  0.91666667  0.87500011  0.66666667
