step 0 time 0.00000e+00 s
           1
    34.114780    0.000000    0.000000
     0.000000   39.392320    0.000000
     0.000000   -4.924050   14.145630
 Li               Ni               O                X               
              432              576             1152              144
Direct configuration=     1
  0.00000000  0.00000000  0.00000000
  0.04166667  0.06250006  0.00000000
  0.08333333  0.00000000  0.00000000
  0.00000000  0.00000000  0.33333333
  0.04166667  0.06250006  0.33333333
  0.08333333  0.00000000  0.33333333
  0.00000000  0.00000000  0.66666667
  0.04166667  0.06250006  0.66666667
  0.08333333  0.00000000  0.66666667
  0.00000000  0.12500000  0.00000000
  0.04166667  0.18750006  0.00000000
  0.08333333  0.12500000  0.00000000
  0.00000000  0.12500000  0.33333333
  0.04166667  0.18750006  0.33333333
  0.08333333  0.12500000  0.33333333
  0.00000000  0.12500000  0.66666667
  0.04166667  0.18750006  0.66666667
  0.08333333  0.12500000  0.66666667
  0.00000000  0.25000000  0.00000000
  0.04166667  0.31250006  0.00000000
  0.08333333  0.25000000  0.00000000
  0.00000000  0.25000000  0.33333333
  0.04166667  0.31250006  0.33333333
  0.08333333  0.25000000  0.33333333
  0.00000000  0.25000000  0.66666667
  0.04166667  0.31250006  0.66666667
  0.08333333  0.25000000  0.66666667
  0.00000000  0.37500000  0.00000000
  0.04166667  0.43750006  0.00000000
  0.08333333  0.37500000  0.00000000
  0.00000000  0.37500000  0.33333333
  0.04166667  0.43750006  0.33333333
  0.08333333  0.37500000  0.33333333
  0.00000000  0.37500000  0.66666667
  0.04166667  0.43750006  0.66666667
  0.08333333  0.37500000  0.66666667
  0.00000000  0.50000000  0.00000000
  0.04166667  0.56250006  0.00000000
  0.08333333  0.50000000  0.00000000
  0.00000000  0.50000000  0.33333333
  0.04166667  0.56250006  0.33333333
  0.08333333  0.50000000  0.33333333
  0.00000000  0.50000000  0.66666667
  0.04166667  0.56250006  0.66666667
  0.08333333  0.50000000  0.66666667
  0.00000000  0.62500000  0.00000000
  0.04166667  0.68750006  0.00000000
  0.08333333  0.62500000  0.00000000
  0.00000000  0.62500000  0.33333333
  0.04166667  0.68750006  0.33333333
  0.08333333  0.62500000  0.33333333
  0.00000000  0.62500000  0.66666667
  0.04166667  0.68750006  0.66666667
  0.08333333  0.62500000  0.66666667
  0.00000000  0.75000000  0.00000000
  0.04166667  0.81250006  0.00000000
  0.08333333  0.75000000  0.00000000
  0.00000000  0.75000000  0.33333333
  0.04166667  0.81250006  0.33333333
  0.08333333  0.75000000  0.33333333
  0.00000000  0.75000000  0.66666667
  0.04166667  0.81250006  0.66666667
  0.08333333  0.75000000  0.66666667
  0.00000000  0.87500000  0.00000000
  0.04166667  0.93750006  0.00000000
  0.08333333  0.87500000  0.00000000
  0.00000000  0.87500000  0.33333333
  0.04166667  0.93750006  0.33333333
  0.08333333  0.87500000  0.33333333
  0.00000000  0.87500000  0.66666667
  0.04166667  0.93750006  0.66666667
  0.08333333  0.87500000  0.66666667
  0.16666667  0.00000000  0.00000000
  0.20833333  0.06250006  0.00000000
  0.25000000  0.00000000  0.00000000
  0.16666667  0.00000000  0.33333333
  0.20833333  0.06250006  0.33333333
  0.25000000  0.00000000  0.33333333
  0.16666667  0.00000000  0.66666667
  0.20833333  0.06250006  0.66666667
  0.25000000  0.00000000  0.66666667
  0.16666667  0.12500000  0.00000000
  0.20833333  0.18750006  0.00000000
  0.25000000  0.12500000  0.00000000
  0.16666667  0.12500000  0.33333333
  0.20833333  0.18750006  0.33333333
  0.25000000  0.12500000  0.33333333
  0.16666667  0.12500000  0.66666667
  0.20833333  0.18750006  0.66666667
  0.25000000  0.12500000  0.66666667
  0.16666667  0.25000000  0.00000000
  0.20833333  0.31250006  0.00000000
  0.25000000  0.25000000  0.00000000
  0.16666667  0.25000000  0.33333333
  0.20833333  0.31250006  0.33333333
  0.25000000  0.25000000  0.33333333
  0.16666667  0.25000000  0.66666667
  0.20833333  0.31250006  0.66666667
  0.25000000  0.25000000  0.66666667
  0.16666667  0.37500000  0.00000000
  0.20833333  0.43750006  0.00000000
  0.25000000  0.37500000  0.00000000
  0.16666667  0.37500000  0.33333333
  0.20833333  0.43750006  0.33333333
  0.25000000  0.37500000  0.33333333
  0.16666667  0.37500000  0.66666667
  0.20833333  0.43750006  0.66666667
  0.25000000  0.37500000  0.66666667
  0.16666667  0.50000000  0.00000000
  0.20833333  0.56250006  0.00000000
  0.25000000  0.50000000  0.00000000
  0.16666667  0.50000000  0.33333333
  0.20833333  0.56250006  0.33333333
  0.25000000  0.50000000  0.33333333
  0.16666667  0.50000000  0.66666667
  0.20833333  0.56250006  0.66666667
  0.25000000  0.50000000  0.66666667
  0.16666667  0.62500000  0.00000000
  0.20833333  0.68750006  0.00000000
  0.25000000  0.62500000  0.00000000
  0.16666667  0.62500000  0.33333333
  0.20833333  0.68750006  0.33333333
  0.25000000  0.62500000  0.33333333
  0.16666667  0.62500000  0.66666667
  0.20833333  0.68750006  0.66666667
  0.25000000  0.62500000  0.66666667
  0.16666667  0.75000000  0.00000000
  0.20833333  0.81250006  0.00000000
  0.25000000  0.75000000  0.00000000
  0.16666667  0.75000000  0.33333333
  0.20833333  0.81250006  0.33333333
  0.25000000  0.75000000  0.33333333
  0.16666667  0.75000000  0.66666667
  0.20833333  0.81250006  0.66666667
  0.25000000  0.75000000  0.66666667
  0.16666667  0.87500000  0.00000000
  0.20833333  0.93750006  0.00000000
  0.25000000  0.87500000  0.00000000
  0.16666667  0.87500000  0.33333333
  0.20833333  0.93750006  0.33333333
  0.25000000  0.87500000  0.33333333
  0.16666667  0.87500000  0.66666667
  0.20833333  0.93750006  0.66666667
  0.25000000  0.87500000  0.66666667
  0.33333333  0.00000000  0.00000000
  0.37500000  0.06250006  0.00000000
  0.41666667  0.00000000  0.00000000
  0.33333333  0.00000000  0.33333333
  0.37500000  0.06250006  0.33333333
  0.41666667  0.00000000  0.33333333
  0.33333333  0.00000000  0.66666667
  0.37500000  0.06250006  0.66666667
  0.41666667  0.00000000  0.66666667
  0.33333333  0.12500000  0.00000000
  0.37500000  0.18750006  0.00000000
  0.41666667  0.12500000  0.00000000
  0.33333333  0.12500000  0.33333333
  0.37500000  0.18750006  0.33333333
  0.41666667  0.12500000  0.33333333
  0.33333333  0.12500000  0.66666667
  0.37500000  0.18750006  0.66666667
  0.41666667  0.12500000  0.66666667
  0.33333333  0.25000000  0.00000000
  0.37500000  0.31250006  0.00000000
  0.41666667  0.25000000  0.00000000
  0.33333333  0.25000000  0.33333333
  0.37500000  0.31250006  0.33333333
  0.41666667  0.25000000  0.33333333
  0.33333333  0.25000000  0.66666667
  0.37500000  0.31250006  0.66666667
  0.41666667  0.25000000  0.66666667
  0.33333333  0.37500000  0.00000000
  0.37500000  0.43750006  0.00000000
  0.41666667  0.37500000  0.00000000
  0.33333333  0.37500000  0.33333333
  0.37500000  0.43750006  0.33333333
  0.41666667  0.37500000  0.33333333
  0.33333333  0.37500000  0.66666667
  0.37500000  0.43750006  0.66666667
  0.41666667  0.37500000  0.66666667
  0.33333333  0.50000000  0.00000000
  0.37500000  0.56250006  0.00000000
  0.41666667  0.50000000  0.00000000
  0.33333333  0.50000000  0.33333333
  0.37500000  0.56250006  0.33333333
  0.41666667  0.50000000  0.33333333
  0.33333333  0.50000000  0.66666667
  0.37500000  0.56250006  0.66666667
  0.41666667  0.50000000  0.66666667
  0.33333333  0.62500000  0.00000000
  0.37500000  0.68750006  0.00000000
  0.41666667  0.62500000  0.00000000
  0.33333333  0.62500000  0.33333333
  0.37500000  0.68750006  0.33333333
  0.41666667  0.62500000  0.33333333
  0.33333333  0.62500000  0.66666667
  0.37500000  0.68750006  0.66666667
  0.41666667  0.62500000  0.66666667
  0.33333333  0.75000000  0.00000000
  0.37500000  0.81250006  0.00000000
  0.41666667  0.75000000  0.00000000
  0.33333333  0.75000000  0.33333333
  0.37500000  0.81250006  0.33333333
  0.41666667  0.75000000  0.33333333
  0.33333333  0.75000000  0.66666667
  0.37500000  0.81250006  0.66666667
  0.41666667  0.75000000  0.66666667
  0.33333333  0.87500000  0.00000000
  0.37500000  0.93750006  0.00000000
  0.41666667  0.87500000  0.00000000
  0.33333333  0.87500000  0.33333333
  0.37500000  0.93750006  0.33333333
  0.41666667  0.87500000  0.33333333
  0.33333333  0.87500000  0.66666667
  0.37500000  0.93750006  0.66666667
  0.41666667  0.87500000  0.66666667
  0.50000000  0.00000000  0.00000000
  0.54166667  0.06250006  0.00000000
  0.58333333  0.00000000  0.00000000
  0.50000000  0.00000000  0.33333333
  0.54166667  0.06250006  0.33333333
  0.58333333  0.00000000  0.33333333
  0.50000000  0.00000000  0.66666667
  0.54166667  0.06250006  0.66666667
  0.58333333  0.00000000  0.66666667
  0.50000000  0.12500000  0.00000000
  0.54166667  0.18750006  0.00000000
  0.58333333  0.12500000  0.00000000
  0.50000000  0.12500000  0.33333333
  0.54166667  0.18750006  0.33333333
  0.58333333  0.12500000  0.33333333
  0.50000000  0.12500000  0.66666667
  0.54166667  0.18750006  0.66666667
  0.58333333  0.12500000  0.66666667
  0.50000000  0.25000000  0.00000000
  0.54166667  0.31250006  0.00000000
  0.58333333  0.25000000  0.00000000
  0.50000000  0.25000000  0.33333333
  0.54166667  0.31250006  0.33333333
  0.58333333  0.25000000  0.33333333
  0.50000000  0.25000000  0.66666667
  0.54166667  0.31250006  0.66666667
  0.58333333  0.25000000  0.66666667
  0.50000000  0.37500000  0.00000000
  0.54166667  0.43750006  0.00000000
  0.58333333  0.37500000  0.00000000
  0.50000000  0.37500000  0.33333333
  0.54166667  0.43750006  0.33333333
  0.58333333  0.37500000  0.33333333
  0.50000000  0.37500000  0.66666667
  0.54166667  0.43750006  0.66666667
  0.58333333  0.37500000  0.66666667
  0.50000000  0.50000000  0.00000000
  0.54166667  0.56250006  0.00000000
  0.58333333  0.50000000  0.00000000
  0.50000000  0.50000000  0.33333333
  0.54166667  0.56250006  0.33333333
  0.58333333  0.50000000  0.33333333
  0.50000000  0.50000000  0.66666667
  0.54166667  0.56250006  0.66666667
  0.58333333  0.50000000  0.66666667
  0.50000000  0.62500000  0.00000000
  0.54166667  0.68750006  0.00000000
  0.58333333  0.62500000  0.00000000
  0.50000000  0.62500000  0.33333333
  0.54166667  0.68750006  0.33333333
  0.58333333  0.62500000  0.33333333
  0.50000000  0.62500000  0.66666667
  0.54166667  0.68750006  0.66666667
  0.58333333  0.62500000  0.66666667
  0.50000000  0.75000000  0.00000000
  0.54166667  0.81250006  0.00000000
  0.58333333  0.75000000  0.00000000
  0.50000000  0.75000000  0.33333333
  0.54166667  0.81250006  0.33333333
  0.58333333  0.75000000  0.33333333
  0.50000000  0.75000000  0.66666667
  0.54166667  0.81250006  0.66666667
  0.58333333  0.75000000  0.66666667
  0.50000000  0.87500000  0.00000000
  0.54166667  0.93750006  0.00000000
  0.58333333  0.87500000  0.00000000
  0.50000000  0.87500000  0.33333333
  0.54166667  0.93750006  0.33333333
  0.58333333  0.87500000  0.33333333
  0.50000000  0.87500000  0.66666667
  0.54166667  0.93750006  0.66666667
  0.58333333  0.87500000  0.66666667
  0.66666667  0.00000000  0.00000000
  0.70833333  0.06250006  0.00000000
  0.75000000  0.00000000  0.00000000
  0.66666667  0.00000000  0.33333333
  0.70833333  0.06250006  0.33333333
  0.75000000  0.00000000  0.33333333
  0.66666667  0.00000000  0.66666667
  0.70833333  0.06250006  0.66666667
  0.75000000  0.00000000  0.66666667
  0.66666667  0.12500000  0.00000000
  0.70833333  0.18750006  0.00000000
  0.75000000  0.12500000  0.00000000
  0.66666667  0.12500000  0.33333333
  0.70833333  0.18750006  0.33333333
  0.75000000  0.12500000  0.33333333
  0.66666667  0.12500000  0.66666667
  0.70833333  0.18750006  0.66666667
  0.75000000  0.12500000  0.66666667
  0.66666667  0.25000000  0.00000000
  0.70833333  0.31250006  0.00000000
  0.75000000  0.25000000  0.00000000
  0.66666667  0.25000000  0.33333333
  0.70833333  0.31250006  0.33333333
  0.75000000  0.25000000  0.33333333
  0.66666667  0.25000000  0.66666667
  0.70833333  0.31250006  0.66666667
  0.75000000  0.25000000  0.66666667
  0.66666667  0.37500000  0.00000000
  0.70833333  0.43750006  0.00000000
  0.75000000  0.37500000  0.00000000
  0.66666667  0.37500000  0.33333333
  0.70833333  0.43750006  0.33333333
  0.75000000  0.37500000  0.33333333
  0.66666667  0.37500000  0.66666667
  0.70833333  0.43750006  0.66666667
  0.75000000  0.37500000  0.66666667
  0.66666667  0.50000000  0.00000000
  0.70833333  0.56250006  0.00000000
  0.75000000  0.50000000  0.00000000
  0.66666667  0.50000000  0.33333333
  0.70833333  0.56250006  0.33333333
  0.75000000  0.50000000  0.33333333
  0.66666667  0.50000000  0.66666667
  0.70833333  0.56250006  0.66666667
  0.75000000  0.50000000  0.66666667
  0.66666667  0.62500000  0.00000000
  0.70833333  0.68750006  0.00000000
  0.75000000  0.62500000  0.00000000
  0.66666667  0.62500000  0.33333333
  0.70833333  0.68750006  0.33333333
  0.75000000  0.62500000  0.33333333
  0.66666667  0.62500000  0.66666667
  0.70833333  0.68750006  0.66666667
  0.75000000  0.62500000  0.66666667
  0.66666667  0.75000000  0.00000000
  0.70833333  0.81250006  0.00000000
  0.75000000  0.75000000  0.00000000
  0.66666667  0.75000000  0.33333333
  0.70833333  0.81250006  0.33333333
  0.75000000  0.75000000  0.33333333
  0.66666667  0.75000000  0.66666667
  0.70833333  0.81250006  0.66666667
  0.75000000  0.75000000  0.66666667
  0.66666667  0.87500000  0.00000000
  0.70833333  0.93750006  0.00000000
  0.75000000  0.87500000  0.00000000
  0.66666667  0.87500000  0.33333333
  0.70833333  0.93750006  0.33333333
  0.75000000  0.87500000  0.33333333
  0.66666667  0.87500000  0.66666667
  0.70833333  0.93750006  0.66666667
  0.75000000  0.87500000  0.66666667
  0.83333333  0.00000000  0.00000000
  0.87500000  0.06250006  0.00000000
  0.91666667  0.00000000  0.00000000
  0.83333333  0.00000000  0.33333333
  0.87500000  0.06250006  0.33333333
  0.91666667  0.00000000  0.33333333
  0.83333333  0.00000000  0.66666667
  0.87500000  0.06250006  0.66666667
  0.91666667  0.00000000  0.66666667
  0.83333333  0.12500000  0.00000000
  0.87500000  0.18750006  0.00000000
  0.91666667  0.12500000  0.00000000
  0.83333333  0.12500000  0.33333333
  0.87500000  0.18750006  0.33333333
  0.91666667  0.12500000  0.33333333
  0.83333333  0.12500000  0.66666667
  0.87500000  0.18750006  0.66666667
  0.91666667  0.12500000  0.66666667
  0.83333333  0.25000000  0.00000000
  0.87500000  0.31250006  0.00000000
  0.91666667  0.25000000  0.00000000
  0.83333333  0.25000000  0.33333333
  0.87500000  0.31250006  0.33333333
  0.91666667  0.25000000  0.33333333
  0.83333333  0.25000000  0.66666667
  0.87500000  0.31250006  0.66666667
  0.91666667  0.25000000  0.66666667
  0.83333333  0.37500000  0.00000000
  0.87500000  0.43750006  0.00000000
  0.91666667  0.37500000  0.00000000
  0.83333333  0.37500000  0.33333333
  0.87500000  0.43750006  0.33333333
  0.91666667  0.37500000  0.33333333
  0.83333333  0.37500000  0.66666667
  0.87500000  0.43750006  0.66666667
  0.91666667  0.37500000  0.66666667
  0.83333333  0.50000000  0.00000000
  0.87500000  0.56250006  0.00000000
  0.91666667  0.50000000  0.00000000
  0.83333333  0.50000000  0.33333333
  0.87500000  0.56250006  0.33333333
  0.91666667  0.50000000  0.33333333
  0.83333333  0.50000000  0.66666667
  0.87500000  0.56250006  0.66666667
  0.91666667  0.50000000  0.66666667
  0.83333333  0.62500000  0.00000000
  0.87500000  0.68750006  0.00000000
  0.91666667  0.62500000  0.00000000
  0.83333333  0.62500000  0.33333333
  0.87500000  0.68750006  0.33333333
  0.91666667  0.62500000  0.33333333
  0.83333333  0.62500000  0.66666667
  0.87500000  0.68750006  0.66666667
  0.91666667  0.62500000  0.66666667
  0.83333333  0.75000000  0.00000000
  0.87500000  0.81250006  0.00000000
  0.91666667  0.75000000  0.00000000
  0.83333333  0.75000000  0.33333333
  0.87500000  0.81250006  0.33333333
  0.91666667  0.75000000  0.33333333
  0.83333333  0.75000000  0.66666667
  0.87500000  0.81250006  0.66666667
  0.91666667  0.75000000  0.66666667
  0.83333333  0.87500000  0.00000000
  0.87500000  0.93750006  0.00000000
  0.91666667  0.87500000  0.00000000
  0.83333333  0.87500000  0.33333333
  0.87500000  0.93750006  0.33333333
  0.91666667  0.87500000  0.33333333
  0.83333333  0.87500000  0.66666667
  0.87500000  0.93750006  0.66666667
  0.91666667  0.87500000  0.66666667
  0.00000000  0.06250006  0.16666650
  0.04166667  0.00000012  0.16666650
  0.08333333  0.06250006  0.16666650
  0.12500000  0.00000012  0.16666650
  0.00000000  0.06250006  0.49999984
  0.04166667  0.00000012  0.49999984
  0.08333333  0.06250006  0.49999984
  0.12500000  0.00000012  0.49999984
  0.00000000  0.06250006  0.83333317
  0.04166667  0.00000012  0.83333317
  0.08333333  0.06250006  0.83333317
  0.12500000  0.00000012  0.83333317
  0.00000000  0.18750006  0.16666650
  0.04166667  0.12500012  0.16666650
  0.08333333  0.18750006  0.16666650
  0.12500000  0.12500012  0.16666650
  0.00000000  0.18750006  0.49999984
  0.04166667  0.12500012  0.49999984
  0.08333333  0.18750006  0.49999984
  0.12500000  0.12500012  0.49999984
  0.00000000  0.18750006  0.83333317
  0.04166667  0.12500012  0.83333317
  0.08333333  0.18750006  0.83333317
  0.12500000  0.12500012  0.83333317
  0.00000000  0.31250006  0.16666650
  0.04166667  0.25000012  0.16666650
  0.08333333  0.31250006  0.16666650
  0.12500000  0.25000012  0.16666650
  0.00000000  0.31250006  0.49999984
  0.04166667  0.25000012  0.49999984
  0.08333333  0.31250006  0.49999984
  0.12500000  0.25000012  0.49999984
  0.00000000  0.31250006  0.83333317
  0.04166667  0.25000012  0.83333317
  0.08333333  0.31250006  0.83333317
  0.12500000  0.25000012  0.83333317
  0.00000000  0.43750006  0.16666650
  0.04166667  0.37500012  0.16666650
  0.08333333  0.43750006  0.16666650
  0.12500000  0.37500012  0.16666650
  0.00000000  0.43750006  0.49999984
  0.04166667  0.37500012  0.49999984
  0.08333333  0.43750006  0.49999984
  0.12500000  0.37500012  0.49999984
  0.00000000  0.43750006  0.83333317
  0.04166667  0.37500012  0.83333317
  0.08333333  0.43750006  0.83333317
  0.12500000  0.37500012  0.83333317
  0.00000000  0.56250006  0.16666650
  0.04166667  0.50000012  0.16666650
  0.08333333  0.56250006  0.16666650
  0.12500000  0.50000012  0.16666650
  0.00000000  0.56250006  0.49999984
  0.04166667  0.50000012  0.49999984
  0.08333333  0.56250006  0.49999984
  0.12500000  0.50000012  0.49999984
  0.00000000  0.56250006  0.83333317
  0.04166667  0.50000012  0.83333317
  0.08333333  0.56250006  0.83333317
  0.12500000  0.50000012  0.83333317
  0.00000000  0.68750006  0.16666650
  0.04166667  0.62500012  0.16666650
  0.08333333  0.68750006  0.16666650
  0.12500000  0.62500012  0.16666650
  0.00000000  0.68750006  0.49999984
  0.04166667  0.62500012  0.49999984
  0.08333333  0.68750006  0.49999984
  0.12500000  0.62500012  0.49999984
  0.00000000  0.68750006  0.83333317
  0.04166667  0.62500012  0.83333317
  0.08333333  0.68750006  0.83333317
  0.12500000  0.62500012  0.83333317
  0.00000000  0.81250006  0.16666650
  0.04166667  0.75000012  0.16666650
  0.08333333  0.81250006  0.16666650
  0.12500000  0.75000012  0.16666650
  0.00000000  0.81250006  0.49999984
  0.04166667  0.75000012  0.49999984
  0.08333333  0.81250006  0.49999984
  0.12500000  0.75000012  0.49999984
  0.00000000  0.81250006  0.83333317
  0.04166667  0.75000012  0.83333317
  0.08333333  0.81250006  0.83333317
  0.12500000  0.75000012  0.83333317
  0.00000000  0.93750006  0.16666650
  0.04166667  0.87500012  0.16666650
  0.08333333  0.93750006  0.16666650
  0.12500000  0.87500012  0.16666650
  0.00000000  0.93750006  0.49999984
  0.04166667  0.87500012  0.49999984
  0.08333333  0.93750006  0.49999984
  0.12500000  0.87500012  0.49999984
  0.00000000  0.93750006  0.83333317
  0.04166667  0.87500012  0.83333317
  0.08333333  0.93750006  0.83333317
  0.12500000  0.87500012  0.83333317
  0.16666667  0.06250006  0.16666650
  0.20833333  0.00000012  0.16666650
  0.25000000  0.06250006  0.16666650
  0.29166667  0.00000012  0.16666650
  0.16666667  0.06250006  0.49999984
  0.20833333  0.00000012  0.49999984
  0.25000000  0.06250006  0.49999984
  0.29166667  0.00000012  0.49999984
  0.16666667  0.06250006  0.83333317
  0.20833333  0.00000012  0.83333317
  0.25000000  0.06250006  0.83333317
  0.29166667  0.00000012  0.83333317
  0.16666667  0.18750006  0.16666650
  0.20833333  0.12500012  0.16666650
  0.25000000  0.18750006  0.16666650
  0.29166667  0.12500012  0.16666650
  0.16666667  0.18750006  0.49999984
  0.20833333  0.12500012  0.49999984
  0.25000000  0.18750006  0.49999984
  0.29166667  0.12500012  0.49999984
  0.16666667  0.18750006  0.83333317
  0.20833333  0.12500012  0.83333317
  0.25000000  0.18750006  0.83333317
  0.29166667  0.12500012  0.83333317
  0.16666667  0.31250006  0.16666650
  0.20833333  0.25000012  0.16666650
  0.25000000  0.31250006  0.16666650
  0.29166667  0.25000012  0.16666650
  0.16666667  0.31250006  0.49999984
  0.20833333  0.25000012  0.49999984
  0.25000000  0.31250006  0.49999984
  0.29166667  0.25000012  0.49999984
  0.16666667  0.31250006  0.83333317
  0.20833333  0.25000012  0.83333317
  0.25000000  0.31250006  0.83333317
  0.29166667  0.25000012  0.83333317
  0.16666667  0.43750006  0.16666650
  0.20833333  0.37500012  0.16666650
  0.25000000  0.43750006  0.16666650
  0.29166667  0.37500012  0.16666650
  0.16666667  0.43750006  0.49999984
  0.20833333  0.37500012  0.49999984
  0.25000000  0.43750006  0.49999984
  0.29166667  0.37500012  0.49999984
  0.16666667  0.43750006  0.83333317
  0.20833333  0.37500012  0.83333317
  0.25000000  0.43750006  0.83333317
  0.29166667  0.37500012  0.83333317
  0.16666667  0.56250006  0.16666650
  0.20833333  0.50000012  0.16666650
  0.25000000  0.56250006  0.16666650
  0.29166667  0.50000012  0.16666650
  0.16666667  0.56250006  0.49999984
  0.20833333  0.50000012  0.49999984
  0.25000000  0.56250006  0.49999984
  0.29166667  0.50000012  0.49999984
  0.16666667  0.56250006  0.83333317
  0.20833333  0.50000012  0.83333317
  0.25000000  0.56250006  0.83333317
  0.29166667  0.50000012  0.83333317
  0.16666667  0.68750006  0.16666650
  0.20833333  0.62500012  0.16666650
  0.25000000  0.68750006  0.16666650
  0.29166667  0.62500012  0.16666650
  0.16666667  0.68750006  0.49999984
  0.20833333  0.62500012  0.49999984
  0.25000000  0.68750006  0.49999984
  0.29166667  0.62500012  0.49999984
  0.16666667  0.68750006  0.83333317
  0.20833333  0.62500012  0.83333317
  0.25000000  0.68750006  0.83333317
  0.29166667  0.62500012  0.83333317
  0.16666667  0.81250006  0.16666650
  0.20833333  0.75000012  0.16666650
  0.25000000  0.81250006  0.16666650
  0.29166667  0.75000012  0.16666650
  0.16666667  0.81250006  0.49999984
  0.20833333  0.75000012  0.49999984
  0.25000000  0.81250006  0.49999984
  0.29166667  0.75000012  0.49999984
  0.16666667  0.81250006  0.83333317
  0.20833333  0.75000012  0.83333317
  0.25000000  0.81250006  0.83333317
  0.29166667  0.75000012  0.83333317
  0.16666667  0.93750006  0.16666650
  0.20833333  0.87500012  0.16666650
  0.25000000  0.93750006  0.16666650
  0.29166667  0.87500012  0.16666650
  0.16666667  0.93750006  0.49999984
  0.20833333  0.87500012  0.49999984
  0.25000000  0.93750006  0.49999984
  0.29166667  0.87500012  0.49999984
  0.16666667  0.93750006  0.83333317
  0.20833333  0.87500012  0.83333317
  0.25000000  0.93750006  0.83333317
  0.29166667  0.87500012  0.83333317
  0.33333333  0.06250006  0.16666650
  0.37500000  0.00000012  0.16666650
  0.41666667  0.06250006  0.16666650
  0.45833333  0.00000012  0.16666650
  0.33333333  0.06250006  0.49999984
  0.37500000  0.00000012  0.49999984
  0.41666667  0.06250006  0.49999984
  0.45833333  0.00000012  0.49999984
  0.33333333  0.06250006  0.83333317
  0.37500000  0.00000012  0.83333317
  0.41666667  0.06250006  0.83333317
  0.45833333  0.00000012  0.83333317
  0.33333333  0.18750006  0.16666650
  0.37500000  0.12500012  0.16666650
  0.41666667  0.18750006  0.16666650
  0.45833333  0.12500012  0.16666650
  0.33333333  0.18750006  0.49999984
  0.37500000  0.12500012  0.49999984
  0.41666667  0.18750006  0.49999984
  0.45833333  0.12500012  0.49999984
  0.33333333  0.18750006  0.83333317
  0.37500000  0.12500012  0.83333317
  0.41666667  0.18750006  0.83333317
  0.45833333  0.12500012  0.83333317
  0.33333333  0.31250006  0.16666650
  0.37500000  0.25000012  0.16666650
  0.41666667  0.31250006  0.16666650
  0.45833333  0.25000012  0.16666650
  0.33333333  0.31250006  0.49999984
  0.37500000  0.25000012  0.49999984
  0.41666667  0.31250006  0.49999984
  0.45833333  0.25000012  0.49999984
  0.33333333  0.31250006  0.83333317
  0.37500000  0.25000012  0.83333317
  0.41666667  0.31250006  0.83333317
  0.45833333  0.25000012  0.83333317
  0.33333333  0.43750006  0.16666650
  0.37500000  0.37500012  0.16666650
  0.41666667  0.43750006  0.16666650
  0.45833333  0.37500012  0.16666650
  0.33333333  0.43750006  0.49999984
  0.37500000  0.37500012  0.49999984
  0.41666667  0.43750006  0.49999984
  0.45833333  0.37500012  0.49999984
  0.33333333  0.43750006  0.83333317
  0.37500000  0.37500012  0.83333317
  0.41666667  0.43750006  0.83333317
  0.45833333  0.37500012  0.83333317
  0.33333333  0.56250006  0.16666650
  0.37500000  0.50000012  0.16666650
  0.41666667  0.56250006  0.16666650
  0.45833333  0.50000012  0.16666650
  0.33333333  0.56250006  0.49999984
  0.37500000  0.50000012  0.49999984
  0.41666667  0.56250006  0.49999984
  0.45833333  0.50000012  0.49999984
  0.33333333  0.56250006  0.83333317
  0.37500000  0.50000012  0.83333317
  0.41666667  0.56250006  0.83333317
  0.45833333  0.50000012  0.83333317
  0.33333333  0.68750006  0.16666650
  0.37500000  0.62500012  0.16666650
  0.41666667  0.68750006  0.16666650
  0.45833333  0.62500012  0.16666650
  0.33333333  0.68750006  0.49999984
  0.37500000  0.62500012  0.49999984
  0.41666667  0.68750006  0.49999984
  0.45833333  0.62500012  0.49999984
  0.33333333  0.68750006  0.83333317
  0.37500000  0.62500012  0.83333317
  0.41666667  0.68750006  0.83333317
  0.45833333  0.62500012  0.83333317
  0.33333333  0.81250006  0.16666650
  0.37500000  0.75000012  0.16666650
  0.41666667  0.81250006  0.16666650
  0.45833333  0.75000012  0.16666650
  0.33333333  0.81250006  0.49999984
  0.37500000  0.75000012  0.49999984
  0.41666667  0.81250006  0.49999984
  0.45833333  0.75000012  0.49999984
  0.33333333  0.81250006  0.83333317
  0.37500000  0.75000012  0.83333317
  0.41666667  0.81250006  0.83333317
  0.45833333  0.75000012  0.83333317
  0.33333333  0.93750006  0.16666650
  0.37500000  0.87500012  0.16666650
  0.41666667  0.93750006  0.16666650
  0.45833333  0.87500012  0.16666650
  0.33333333  0.93750006  0.49999984
  0.37500000  0.87500012  0.49999984
  0.41666667  0.93750006  0.49999984
  0.45833333  0.87500012  0.49999984
  0.33333333  0.93750006  0.83333317
  0.37500000  0.87500012  0.83333317
  0.41666667  0.93750006  0.83333317
  0.45833333  0.87500012  0.83333317
  0.50000000  0.06250006  0.16666650
  0.54166667  0.00000012  0.16666650
  0.58333333  0.06250006  0.16666650
  0.62500000  0.00000012  0.16666650
  0.50000000  0.06250006  0.49999984
  0.54166667  0.00000012  0.49999984
  0.58333333  0.06250006  0.49999984
  0.62500000  0.00000012  0.49999984
  0.50000000  0.06250006  0.83333317
  0.54166667  0.00000012  0.83333317
  0.58333333  0.06250006  0.83333317
  0.62500000  0.00000012  0.83333317
  0.50000000  0.18750006  0.16666650
  0.54166667  0.12500012  0.16666650
  0.58333333  0.18750006  0.16666650
  0.62500000  0.12500012  0.16666650
  0.50000000  0.18750006  0.49999984
  0.54166667  0.12500012  0.49999984
  0.58333333  0.18750006  0.49999984
  0.62500000  0.12500012  0.49999984
  0.50000000  0.18750006  0.83333317
  0.54166667  0.12500012  0.83333317
  0.58333333  0.18750006  0.83333317
  0.62500000  0.12500012  0.83333317
  0.50000000  0.31250006  0.16666650
  0.54166667  0.25000012  0.16666650
  0.58333333  0.31250006  0.16666650
  0.62500000  0.25000012  0.16666650
  0.50000000  0.31250006  0.49999984
  0.54166667  0.25000012  0.49999984
  0.58333333  0.31250006  0.49999984
  0.62500000  0.25000012  0.49999984
  0.50000000  0.31250006  0.83333317
  0.54166667  0.25000012  0.83333317
  0.58333333  0.31250006  0.83333317
  0.62500000  0.25000012  0.83333317
  0.50000000  0.43750006  0.16666650
  0.54166667  0.37500012  0.16666650
  0.58333333  0.43750006  0.16666650
  0.62500000  0.37500012  0.16666650
  0.50000000  0.43750006  0.49999984
  0.54166667  0.37500012  0.49999984
  0.58333333  0.43750006  0.49999984
  0.62500000  0.37500012  0.49999984
  0.50000000  0.43750006  0.83333317
  0.54166667  0.37500012  0.83333317
  0.58333333  0.43750006  0.83333317
  0.62500000  0.37500012  0.83333317
  0.50000000  0.56250006  0.16666650
  0.54166667  0.50000012  0.16666650
  0.58333333  0.56250006  0.16666650
  0.62500000  0.50000012  0.16666650
  0.50000000  0.56250006  0.49999984
  0.54166667  0.50000012  0.49999984
  0.58333333  0.56250006  0.49999984
  0.62500000  0.50000012  0.49999984
  0.50000000  0.56250006  0.83333317
  0.54166667  0.50000012  0.83333317
  0.58333333  0.56250006  0.83333317
  0.62500000  0.50000012  0.83333317
  0.50000000  0.68750006  0.16666650
  0.54166667  0.62500012  0.16666650
  0.58333333  0.68750006  0.16666650
  0.62500000  0.62500012  0.16666650
  0.50000000  0.68750006  0.49999984
  0.54166667  0.62500012  0.49999984
  0.58333333  0.68750006  0.49999984
  0.62500000  0.62500012  0.49999984
  0.50000000  0.68750006  0.83333317
  0.54166667  0.62500012  0.83333317
  0.58333333  0.68750006  0.83333317
  0.62500000  0.62500012  0.83333317
  0.50000000  0.81250006  0.16666650
  0.54166667  0.75000012  0.16666650
  0.58333333  0.81250006  0.16666650
  0.62500000  0.75000012  0.16666650
  0.50000000  0.81250006  0.49999984
  0.54166667  0.75000012  0.49999984
  0.58333333  0.81250006  0.49999984
  0.62500000  0.75000012  0.49999984
  0.50000000  0.81250006  0.83333317
  0.54166667  0.75000012  0.83333317